Argon; nakljucna zacetna konfiguracija

864 atoms
0 bonds
0 angles
0 dihedrals
0 impropers

1 atom types

0.0 33.6 xlo xhi
0.0 33.6 ylo yhi
0.0 33.6 zlo zhi

Masses

  1 39.948

Atoms

  1 1  20.29338216233697 0.5915329057726467 21.37651756093168
  2 1  27.186589184651837 31.289678070448314 13.702431022247431
  3 1  1.9069330989094513 8.42228191508895 8.214792471706836
  4 1  0.45330754323061595 26.11740855248386 27.166089305973674
  5 1  18.29268634229495 30.229971657900126 26.048208341207918
  6 1  4.971386086698222 8.032961870809038 3.083737785845206
  7 1  24.234949714486007 3.7359164379977234 31.426001947586943
  8 1  19.721739866822126 25.69678741876485 0.45212387927266634
  9 1  7.386126393629286 17.30378687702526 31.507136821368263
  10 1  2.3836762378861622 9.643936359936093 27.717447610759248
  11 1  13.64352365368133 17.143002125083626 16.937050914383576
  12 1  25.97090101327224 9.00114827176783 1.160233286290753
  13 1  2.9041849641371953 14.621893743092897 20.887413142609958
  14 1  13.374504610022441 22.546405069409712 30.24174669669593
  15 1  11.316817329084689 27.80879456848997 30.621694281563478
  16 1  22.400937542847934 9.2294642075206 13.420298141930889
  17 1  20.025091135034906 18.51421881813845 12.81950070349034
  18 1  2.434940605006867 10.018792131369901 15.428090309616094
  19 1  11.046421039489353 19.264123100937333 4.541873061589005
  20 1  9.686831667377527 32.9576665660989 18.334963434725704
  21 1  14.524125751970908 22.02498399081423 3.8071302057742957
  22 1  20.871014194273148 12.864868375009152 28.96444972521095
  23 1  4.8988262290955955 13.244618233615578 8.856809098855118
  24 1  27.431510307468162 9.286932096302227 5.150097784918026
  25 1  11.815143047290599 1.3059692458435503 21.764184802905763
  26 1  10.489061654506859 21.4027904627471 10.970351259985984
  27 1  33.36632640367819 31.46262958075539 1.715320457606663
  28 1  8.1680199172996 18.573378911186897 9.96621749477515
  29 1  6.340186852138254 27.666727924318398 5.822960834586899
  30 1  4.660664426460582 9.898936920668143 29.849532940012143
  31 1  10.462445206600192 32.91616645373364 15.059228488094265
  32 1  4.556612906015565 7.061724557997289 19.168037846299587
  33 1  25.156380494865765 11.304482289841982 31.6818677893483
  34 1  22.396559765218853 5.322674364510212 30.006451447790152
  35 1  22.08726333291844 31.919123275588433 31.20301085457747
  36 1  16.79160797956392 24.612830354615085 17.255224374846183
  37 1  27.62408148370144 31.985225490782145 21.876991685210793
  38 1  31.208284279731416 8.123604895037953 12.872457015125999
  39 1  13.972191815102326 10.722936820669133 26.221633045700745
  40 1  4.5914275451215945 27.77087846523047 13.819157473160955
  41 1  24.075237926691813 17.75989287488438 28.873554158750906
  42 1  32.90925599581827 19.18485084097243 14.287059788701692
  43 1  1.9767491300480087 24.792909159440004 23.105322066373393
  44 1  12.2233936916394 33.14940231298326 7.580613497167326
  45 1  6.003609285588694 6.284657040046523 33.38986542490144
  46 1  24.488578512393392 22.05825872179728 0.8454245485294827
  47 1  27.283123694566527 30.234151784643583 19.76699678026278
  48 1  24.534114253861524 16.059208215788335 21.528320886115466
  49 1  16.58173198494676 11.131257449772434 32.57493877035659
  50 1  9.98800878152362 28.81901852841555 2.599250176423396
  51 1  28.107851235287434 27.068052105260442 3.82229657180206
  52 1  7.523053503822611 13.067065769227888 18.730561445259113
  53 1  27.919550751947483 18.897136464584115 10.061881694700858
  54 1  1.5412385729861697 4.9492491340095635 21.033123181891415
  55 1  16.958281759724596 17.70777046073379 2.995566104569546
  56 1  19.870451671296184 15.90732546887397 26.110746297039743
  57 1  16.87371887132618 10.293429299501794 8.26784282749435
  58 1  21.36059850836312 17.979774268768427 4.675540294843945
  59 1  13.146002923217443 21.13694227327175 13.378196895383272
  60 1  4.084454990683948 10.920465608450357 26.098041577084135
  61 1  12.79959754352861 4.165548841223084 29.161271094921307
  62 1  18.32914668798449 32.72997300551396 17.08517614187611
  63 1  1.6196020186521016 25.291630917470094 29.607471129588976
  64 1  12.679157958896946 24.103463954075462 23.163732651901768
  65 1  9.341279643799652 13.003702034620742 25.862326899554606
  66 1  26.409453258229853 2.2898094881279256 20.51035778506497
  67 1  9.377755069032503 6.369654127257628 3.497742724028976
  68 1  16.965192727262657 16.291244130850885 9.774241134946246
  69 1  11.167842966807733 6.318166888950372 16.741015588598273
  70 1  12.423247271270544 22.995678249701314 15.287466507110189
  71 1  7.396382142737118 27.61289195805568 29.1502747259511
  72 1  0.5311183506906033 27.04549048376935 16.755396965167108
  73 1  23.58693256745596 14.821897706332024 14.086306406432954
  74 1  6.550943875266714 17.033699211701588 7.234099381517005
  75 1  20.979755104005257 12.67235346706885 10.038073407261624
  76 1  14.590111089338542 13.25821217105574 9.982734194056457
  77 1  30.132257174345806 11.331405161919745 31.840025975445535
  78 1  1.8381123710433611 3.0967524311499943 29.23860082548006
  79 1  7.537237394370235 21.938301689219863 30.33848019257796
  80 1  26.832097304636832 21.086784786107597 26.848156880805025
  81 1  13.456133440855787 18.149002724321704 28.755826592097073
  82 1  32.548069989710505 24.146199847536167 21.15024692404043
  83 1  5.184558533677998 0.4066529499795836 22.076176813919208
  84 1  1.2055441092058643 1.8393658167418583 26.76100660337452
  85 1  27.01902921989521 17.89210573745771 17.290049941828
  86 1  17.566341337784966 25.61236635398226 11.258062948951057
  87 1  4.2329196116299705 0.26748274645786446 6.281640544518125
  88 1  24.687113255086516 11.292795262694243 21.01757183622097
  89 1  19.50353284674014 0.5213853182777939 11.129085689171646
  90 1  12.389087148955857 32.16822075063753 0.16133810565790638
  91 1  32.498116193273354 28.75273776660164 20.29193749026444
  92 1  20.951532771578467 4.840551207073498 21.794942672351706
  93 1  17.907756691207968 8.295196022226996 0.06244302926229466
  94 1  20.300309277924832 17.43428443901541 31.049554334710212
  95 1  16.682984026253838 7.143239495157597 10.350155475878806
  96 1  31.44266885097753 31.33333018314708 16.911244606754426
  97 1  9.548288176269795 10.826410397881144 27.381344246953947
  98 1  30.126675489987893 19.22942813547243 30.062247692823686
  99 1  3.1457027944379403 14.003201269337282 29.532544271463415
  100 1  23.501784993170155 30.53728174424362 12.991831070307654
  101 1  8.096008406268385 9.108158530460841 19.885858943713924
  102 1  2.620210359355743 18.10358801072796 23.24046690567457
  103 1  33.390791988228955 22.18717223732803 24.88220262069802
  104 1  2.9161212849906426 13.556390587683074 13.281554977843923
  105 1  13.264398248312057 31.73713413128362 11.818317417464316
  106 1  1.2661715325880603 1.136863213612278 2.2881295135324184
  107 1  19.77499477729703 16.16079991413625 5.666040617024761
  108 1  7.80517510226778 13.906472380337101 23.387495560525824
  109 1  27.235912457695377 10.490407104103584 22.154420986435508
  110 1  22.012746072534085 32.50479797826176 2.5956448197018145
  111 1  27.901352071005245 16.78615624434597 21.483600672887995
  112 1  17.844818657389812 5.680810790649084 2.211279964762166
  113 1  11.819985537987037 33.09926423161232 25.202437233074523
  114 1  14.329394811515284 0.9422110335730338 5.146161324375545
  115 1  21.0799772108712 30.37150424205366 7.58571657731987
  116 1  11.225978301909068 26.160787466345926 6.614414211222835
  117 1  3.528012834875309 30.390205472982686 13.720750770245871
  118 1  14.152768741785973 24.560996118352012 4.003234706181998
  119 1  15.486034439269556 14.349221776647017 5.415832119984829
  120 1  33.425364713856936 1.7394495848869784 13.712204453123404
  121 1  4.75033031371001 14.494324681094962 5.361991160689937
  122 1  30.362260772000845 25.942771566380596 16.537810386222407
  123 1  24.73990978878389 27.57372624948694 12.540689078203805
  124 1  17.848812063651174 6.295018486355521 6.630210381030353
  125 1  26.49665676160117 26.824602562945973 19.764767959301448
  126 1  2.6225773185750985 22.790088260709442 6.466934605834637
  127 1  19.334879755001015 2.2623021263674854 8.003824543389364
  128 1  19.62378236098228 31.40097625125963 11.879872930979488
  129 1  13.648891069287172 16.255836791910212 19.95882873242509
  130 1  7.173318391101057 31.227710137847975 22.85517431185869
  131 1  9.458410318275298 1.8254385846488836 6.749385047892837
  132 1  29.625741554126204 22.439206642640453 17.904238715064313
  133 1  31.65423743662562 33.04470710237795 6.019671947155914
  134 1  21.464438606994992 2.250998562428189 32.0410219339305
  135 1  29.229943482488494 8.947680802743982 26.74496718964479
  136 1  22.59833510574744 32.9271413070173 15.73752510216134
  137 1  28.19776706507499 28.983985661095343 16.274585155436963
  138 1  10.17774029800457 15.859077583847531 23.475920724393205
  139 1  26.292960843750247 1.4980076950819543 25.65165488363584
  140 1  5.324943047912856 31.77781694454218 16.268411750800322
  141 1  32.34803201154279 31.339756212483255 9.442871011596527
  142 1  5.407746286732522 4.44614315709989 28.25495878141477
  143 1  13.708065715529177 29.195538207528408 19.845987084170133
  144 1  14.311552984433815 21.133922154671357 16.50475101051764
  145 1  6.875843691615811 7.41450503635321 10.874981154498819
  146 1  29.892327494304762 14.743726569704389 6.497031665969733
  147 1  30.439480419004 15.30392170210536 9.982278376269804
  148 1  31.359294097052814 13.464635697870635 30.37291168888368
  149 1  13.079021515259749 15.825167294123869 1.526983041412091
  150 1  10.18336980216776 25.469746830764404 17.699196940318444
  151 1  11.94288284318109 16.335644634238648 25.992203266662884
  152 1  20.74836144628472 29.732116603893807 29.983095103332705
  153 1  2.619491551132665 23.49077804801346 11.648949870606094
  154 1  12.710724585191775 25.53377019989612 10.018080741070673
  155 1  24.992879670544585 18.785616200105753 9.911236443105219
  156 1  7.213632736292093 32.591291061270844 6.638217735291294
  157 1  17.3271170265786 21.342987702264164 9.732806345565313
  158 1  29.83428416042997 20.668756111974883 0.7958413854574504
  159 1  4.097917172909951 31.20634733338107 21.24162510655732
  160 1  20.937633236707896 14.149724898486708 16.23041283140395
  161 1  12.955443120348956 32.33624367859716 28.47650268683412
  162 1  24.769435514494972 4.296068367248182 25.515688534414043
  163 1  32.100532187282916 27.20366713238703 23.189375848939175
  164 1  12.201467063164879 23.38410215797487 7.467503597188237
  165 1  16.308331676729562 18.549697499044225 25.01126446784924
  166 1  8.527857170826978 18.87199994025462 21.312589846268004
  167 1  28.661475281508697 5.84018426529476 9.245263703386811
  168 1  13.221328892190717 12.355169883504265 29.3073606014652
  169 1  3.283583711380155 6.470583296903683 23.955650685069987
  170 1  16.107290393332903 0.05849333217215716 3.37247302821876
  171 1  24.980120253417695 6.173081596796646 4.143262826158684
  172 1  24.102959502390817 23.705823596966702 5.868781434633252
  173 1  3.9477345641135715 29.218528227851543 10.625451048545573
  174 1  7.469586265374483 16.567929558681655 18.648078064731777
  175 1  2.5392459677498334 18.318132161575964 33.54977103474401
  176 1  30.229913861823093 5.022597105512699 15.69930504336985
  177 1  18.263672323593642 7.8410985007445815 26.81508369561597
  178 1  30.94563636385088 23.542389354836885 5.363570197713155
  179 1  23.59939195707343 28.478477022446572 4.195621876219406
  180 1  2.7090263461165205 29.331940525838327 30.25097184633434
  181 1  14.030595184967531 33.10816101008112 21.54154419871731
  182 1  4.561064765238663 15.73779986430021 0.40387895334396673
  183 1  8.624008493980467 22.05082526995733 12.779687580435501
  184 1  26.133700663693947 12.545689921115846 13.702816119427048
  185 1  12.048944948510623 7.658393485590519 24.849582492088068
  186 1  33.33277488672018 24.901497390449652 11.459613438353937
  187 1  28.725124965560124 28.045920974295107 0.8800867539095171
  188 1  22.977170650305315 28.201488098569158 16.930867621892446
  189 1  30.987675848178643 8.661176776104345 6.3414725873792195
  190 1  5.268919842055577 20.32432875792914 5.911007531162456
  191 1  25.362751826167145 19.816213420130765 14.057781388418658
  192 1  6.689548620786386 29.41693829552646 26.116042852535344
  193 1  0.7581587448056298 11.165749247172633 4.544508863797422
  194 1  27.12779331434456 16.509243045877614 14.238258674141731
  195 1  26.45843982416709 33.14236387532648 30.23346366733495
  196 1  3.852141106413938 5.125819487525548 30.113762113178556
  197 1  31.388969453192303 33.46953376674124 0.8456683038946621
  198 1  0.4153269749452996 6.824685569188055 11.779216865582072
  199 1  4.917511238086578 1.6938558617540522 27.626587062209836
  200 1  7.387364099633826 1.5202847209356607 19.749055542509026
  201 1  23.607411669054006 25.525594393278777 20.952683850936552
  202 1  23.909308397481933 1.3771039993213536 18.09528041619398
  203 1  20.393278640606493 12.795101867174344 2.127748502089968
  204 1  11.638136035581644 4.347578912040823 5.228301307423054
  205 1  13.255902167088985 17.58427815206413 13.99068282662229
  206 1  7.986592699397963 19.115283368463356 17.485258229747892
  207 1  22.351407589521866 9.934663468949799 20.52446011941945
  208 1  1.6096634778097112 27.05039688754041 21.659849931049795
  209 1  22.626430503580643 30.629585730537887 18.264082864995803
  210 1  19.198743902147182 5.073330054512136 12.126949426131905
  211 1  24.18467535280776 22.231462526284247 11.692026359459966
  212 1  22.889243326683026 20.28499599081214 6.774775359648709
  213 1  20.8378459818993 22.63141675352672 9.605233416942884
  214 1  23.03022984916741 19.771555721461443 21.31427821824563
  215 1  31.74260271906404 8.987222488951627 10.344677670190142
  216 1  4.626682018353794 0.17166220148734085 10.912369111702676
  217 1  25.4989938375686 18.468422332596752 26.141838283038755
  218 1  9.243637042859424 7.032517256364951 8.698122607301132
  219 1  31.389532651978666 10.677305286461376 1.795524775543325
  220 1  27.179382478912274 21.915700485500064 23.7883228987659
  221 1  25.55684284866009 9.807325357939492 28.1315459003949
  222 1  26.4155161829563 5.964363562164586 28.02549527092863
  223 1  9.309722897072591 14.12027340821094 29.415850932779556
  224 1  30.1883400286668 3.1428268571887314 23.701185590697097
  225 1  14.433772179797726 27.009218285022705 17.02171046612027
  226 1  21.590420417276043 12.830505349288254 21.72858142710816
  227 1  11.88603798462694 28.221242078547384 4.1278256959698245
  228 1  10.816533682586048 13.856722485325397 5.647063545259505
  229 1  9.558830576501764 31.665771924723785 23.962162630496923
  230 1  13.70972663825429 19.789481419299385 32.85702146215549
  231 1  15.300507376257869 5.293941664623628 19.589226329631515
  232 1  27.993278042352884 15.618771325147822 32.828902640101205
  233 1  9.264057919631549 4.237130779319657 11.41651094437955
  234 1  10.158630602234798 16.430206696357665 8.485085637938669
  235 1  6.13470776638699 23.63530977976473 22.577345055758556
  236 1  14.81613197843642 6.039914958438486 29.419007350545012
  237 1  16.40219588577623 27.176574310705554 28.23339569538805
  238 1  21.006526696949045 22.864654013853517 3.1324547160382035
  239 1  29.35920384663108 24.866263390338343 12.680615599249949
  240 1  10.698107906565387 18.60614947455054 1.8116110379196289
  241 1  13.450571306708705 8.590809297612697 16.361647345431393
  242 1  2.8160561791162118 30.959629606264883 2.8650389531267297
  243 1  26.11297712115416 3.2361373658837698 3.1047688162691696
  244 1  18.442223561413964 11.974323282274067 18.765652584705126
  245 1  16.469219983624523 27.518823387562453 0.7398130485013065
  246 1  14.735601842302888 2.4256088319864673 22.756179999083674
  247 1  18.69766698014477 27.550855553203192 32.5452049494335
  248 1  7.653867592173035 13.031891238460002 9.355259401975562
  249 1  6.530971214096027 32.51810646584299 3.7608248631133074
  250 1  27.517266227268575 12.511785875301083 5.456813415123208
  251 1  15.857741418685473 21.461111406980336 5.855758888455873
  252 1  19.143624132684167 16.254866020206986 22.30771841165196
  253 1  29.807815655175872 13.650645252926703 27.813814019383663
  254 1  8.386797482422612 8.725597610607121 23.838199268181665
  255 1  5.623973244840625 4.944737130086995 10.525240343593433
  256 1  20.97102228023301 10.039198019776366 16.094914462259442
  257 1  21.87148747168392 17.61272248191048 10.694426715727387
  258 1  10.769160073066578 15.91162862761177 18.207474297437326
  259 1  33.420336068578614 29.25826265849641 6.659491520856572
  260 1  20.30309683449623 30.34693825554556 19.18201289240377
  261 1  30.379948125379055 26.04039259768807 21.637634334207156
  262 1  19.457417534011547 23.475435162454765 15.023782311973813
  263 1  12.175540195365643 14.176984751430139 27.283159528335084
  264 1  19.89656767014574 32.08886347869324 29.303088639128212
  265 1  24.48037905841075 13.436402409495612 29.569836471981688
  266 1  26.364072047201454 22.996996749274967 15.76812827440936
  267 1  6.969960855249943 22.37315815414151 8.263854117581246
  268 1  20.793535339235163 29.756787075555657 23.850703573227243
  269 1  2.8607184427021446 5.269230482050361 6.349508646777912
  270 1  30.51084439872494 26.65319867479131 2.24540005014831
  271 1  12.338089709179567 11.020094393554842 21.187731299648703
  272 1  8.87495308604884 14.37088561578292 11.168252450333169
  273 1  28.123283473879656 27.43056336192453 13.448021944117475
  274 1  7.14563320118853 10.487198928209324 15.142864983930007
  275 1  29.46596823865829 15.868480790953013 16.935428004771573
  276 1  18.34222220777016 2.971189988656544 4.111133649823923
  277 1  22.120821724411837 7.430283950497827 25.01568165097085
  278 1  28.108005342751223 0.23632043732656385 2.765880334760383
  279 1  24.212564246347373 2.116402832864759 8.876543654141205
  280 1  24.059029616385615 19.482415076590176 23.853897867248822
  281 1  18.77605943472523 17.310560720937183 14.920840219721008
  282 1  0.39136307920478297 1.2643163464755234 4.697356519141092
  283 1  24.908593030307262 27.67854668024496 25.7958680554165
  284 1  0.8051158303282426 0.06192481983665257 22.74619921698247
  285 1  29.096229071052978 29.34830935651521 8.23594816847638
  286 1  23.07019014605621 10.122487508353451 10.90991465956339
  287 1  4.94473802397239 12.75831745365311 14.967508150294245
  288 1  10.114434497148991 14.592113347073095 32.239991307385985
  289 1  4.524090166868644 18.990714075987324 29.616089376954115
  290 1  18.278739578409184 32.892536382114784 7.2982414535714595
  291 1  5.363526480803409 10.581152153641222 4.461777335362092
  292 1  22.860519081611724 15.48127378740397 25.056567350568734
  293 1  28.206985985000575 22.24140693811801 3.6648509387009867
  294 1  6.472955835905878 13.60021394611838 27.27101769156387
  295 1  3.071013682535476 28.721514543235205 24.352251020706692
  296 1  20.21654630939895 19.2353638013541 28.505215251920745
  297 1  26.630116165024436 19.162192488005584 7.598507254051936
  298 1  22.70544047692471 16.169551037325856 3.3702149308262657
  299 1  11.902378395832981 29.700549773044848 22.732935663080518
  300 1  29.008475696871237 0.07795008457882169 14.769180964729083
  301 1  15.930039428165493 26.008855146404517 21.177441449162206
  302 1  30.622345649581593 28.668058045412298 28.032895720829316
  303 1  5.1195025460802475 20.03993527559876 9.784182377067351
  304 1  6.627910175923273 22.04761767165132 4.575683179356029
  305 1  5.2695444327809104 11.944239214061191 22.832751538460958
  306 1  19.835969299792676 8.577651275560935 12.907891203362546
  307 1  9.555609835335687 17.81148716516037 33.10794630600117
  308 1  26.69033938341615 15.372284073591594 5.316826698568362
  309 1  3.3146201055478626 2.063770591241982 18.90452416358743
  310 1  4.00486178189701 32.825884087299734 14.025810038181751
  311 1  12.691881221554038 9.259721621793815 29.336768178800924
  312 1  5.995124729504892 26.757670380011845 21.822530644273176
  313 1  21.957551414222937 15.795006231106854 19.276111686305537
  314 1  0.08139970969019909 14.831126946515065 23.82758519928943
  315 1  15.0945029090514 27.286812632039922 7.419246648745367
  316 1  12.349714087370874 13.281345146908304 3.0668704285692896
  317 1  23.20919736480203 6.502936033334863 33.097021126942195
  318 1  0.3531882942437797 19.819132416289303 7.845737073238146
  319 1  29.166962916318862 16.352718380358635 29.234076914306865
  320 1  9.250332459325074 11.888722760417492 14.001538744957397
  321 1  7.975986555823646 0.4699269933721395 11.936987780131327
  322 1  11.86352646082753 24.143194007040176 33.12981873660319
  323 1  26.31419115096023 23.411909965741778 29.745905644237567
  324 1  5.226099740780963 31.137340783043335 0.811901391282551
  325 1  14.438155771236847 15.134959397957182 14.486244613286361
  326 1  32.33546523922936 27.18039838082077 7.962750988298288
  327 1  18.73995604319508 24.467471436842352 3.3273303042049625
  328 1  3.994317481013069 12.471614631324442 19.67642397226746
  329 1  17.821169583737923 17.23357058673364 6.968534432783176
  330 1  7.2492867619774755 26.516383717399368 12.827307187876684
  331 1  23.179613635505568 29.561286453649195 9.157077234999042
  332 1  16.446347979724916 28.565965226044824 25.223451329722813
  333 1  25.523602779678956 8.079984638001187 12.14443168854991
  334 1  7.022928840705196 11.826924357770812 29.587968657016738
  335 1  30.708137230771843 1.3287518508219482 11.273563263500975
  336 1  17.149077551016994 19.214101534969462 29.699213661525246
  337 1  32.09111649139097 30.590095913936416 24.100550431307326
  338 1  28.11267415985557 6.343814374484291 25.492937703460925
  339 1  24.6708809280428 31.30695446407097 23.182667704609745
  340 1  1.1391188167806698 18.25717285019642 27.425008551088773
  341 1  9.75650420670626 23.53381148783678 6.754249154594783
  342 1  17.433418220195332 22.34720166908606 26.024709353785507
  343 1  12.506914214387065 8.109174919232379 7.847152514021243
  344 1  2.614851603537227 19.732681371224054 4.107562016102294
  345 1  33.256968578639174 22.022653318998504 30.4491372985897
  346 1  8.307822783009975 8.91977385311956 28.785954473390206
  347 1  26.76395723963516 24.98370491269378 23.971044258944072
  348 1  17.32423056830145 27.075794971442292 5.373825159823364
  349 1  22.920496899362437 27.466213441004204 7.5655144915945725
  350 1  22.897281716006233 27.42316760581758 31.494701088224783
  351 1  9.215609905379596 25.86761566292631 2.02199193782457
  352 1  32.93573187227812 13.06289031237065 20.365926132284276
  353 1  12.875340029329541 1.2335732642283577 1.1480593834978465
  354 1  18.105472132780328 23.91968574567476 21.73131826767696
  355 1  29.302347596844832 9.712479195117517 20.469433316120515
  356 1  16.54728825222866 1.410575804885294 10.872947100770633
  357 1  5.980540731040355 4.084570426542612 22.70867695339929
  358 1  30.290061391503464 13.608447392218388 21.681538122784815
  359 1  0.5175222871341658 26.20660848340019 4.679488706931371
  360 1  7.454269090546048 23.19250838746761 15.39746931596476
  361 1  29.073446130762225 18.49459460640116 3.621197831989769
  362 1  29.041558066850556 10.969909116741206 9.69277730766032
  363 1  6.797495781202786 9.520278761824184 1.6520821649149335
  364 1  17.1115474261228 31.796825297356545 10.014982685187762
  365 1  25.360325595737283 6.9622106045447865 25.035178299911472
  366 1  26.184686442655693 11.29007038079584 9.607767240117523
  367 1  1.6611653784083098 26.04169291146056 14.459615272648598
  368 1  0.9553412053307027 6.895239917790905 28.611682240367827
  369 1  18.983437643745813 32.78701312051831 23.82580081581738
  370 1  5.243338421845414 25.0190848089359 25.806141258669008
  371 1  9.461467819473823 14.21835914920135 20.35713247789366
  372 1  21.209785775626475 9.6252603235846 28.079881031394276
  373 1  5.791284773241728 20.547553805207755 20.012715043764057
  374 1  6.191548109868826 0.5653993889605919 16.839335375711237
  375 1  0.7339706877873665 24.979528869915875 18.52064885693747
  376 1  25.469612892163273 15.573882831385857 26.71836571525082
  377 1  21.56191356915653 29.1784710558561 14.99188684762188
  378 1  0.1446890730530356 32.25080579798985 13.05612791361793
  379 1  27.826960497709013 28.86931933921075 25.66554127978271
  380 1  24.018937248552646 8.385600155653684 18.31333326381041
  381 1  8.453176512166854 31.755937032445615 31.90764162891758
  382 1  31.324135367121393 10.00722402329789 25.86782845308009
  383 1  33.163142749933 15.204816067536841 13.022723849469296
  384 1  9.77135108981904 23.302152795354974 31.69637177545882
  385 1  1.3800069472544976 14.065424820997384 18.090057712021178
  386 1  4.137959567189882 3.9647934845498685 17.317252529580855
  387 1  10.666189278200934 8.91972874655033 16.653127180338597
  388 1  32.70184916307912 10.236178966986754 12.451256712578882
  389 1  27.86340803462134 5.415136913633802 6.684391209631874
  390 1  10.19728759833722 1.4315098741138588 10.610637796447381
  391 1  18.05530751671577 8.511980489040411 20.34405834462072
  392 1  0.11456481390598815 20.758951338534807 3.6341138520816227
  393 1  20.69584421634468 2.9044630471897768 18.57006146512155
  394 1  32.970961882023786 20.683367868496454 16.523098026893685
  395 1  7.224274148830068 2.7902537357062323 7.823302150977718
  396 1  2.2063240564933047 30.752607707970785 15.917147311109987
  397 1  28.346210132136743 5.454124846500401 17.333499387227953
  398 1  10.014461955354822 24.907074828574526 29.129470089474573
  399 1  20.82412426110137 28.630905558716258 3.3401076829773624
  400 1  9.146394909656184 6.586417176152227 25.36780932903199
  401 1  28.335870637178317 1.9211777025530488 32.15006730803392
  402 1  24.606607545170643 0.0322916504756785 32.775380627667545
  403 1  28.1792123433179 33.48103528147704 27.186302517710185
  404 1  16.517870184671633 30.264810219718637 4.710568623764898
  405 1  19.737770523409843 5.57498615396934 4.755111873934444
  406 1  7.2893365815098 33.295409566816176 28.440920522822946
  407 1  21.751516237156096 32.32948513946217 10.306718732941311
  408 1  20.535550653746736 21.689886829771794 30.419739260095735
  409 1  16.88886768153639 12.281546886546899 5.2387491011632745
  410 1  23.238086425726056 22.030884241290426 29.9804076889474
  411 1  4.248478471699101 21.36129516012905 16.733793146454776
  412 1  15.732269052098895 3.9725546428206227 0.2151858446104752
  413 1  9.232848262268746 29.346855423711716 14.45748710895061
  414 1  14.913976194664823 3.7183690700921543 9.75673146254221
  415 1  10.619446196310301 25.52904762235647 21.668853813834076
  416 1  14.891783411389936 19.89199782634299 9.799319524249338
  417 1  13.478168935043309 6.93778812398033 9.955734508941244
  418 1  8.858929619319015 3.3654582699841664 13.729227554814004
  419 1  12.665764947572367 16.120532308282208 6.549217005129712
  420 1  24.447467638215393 24.34931992588105 17.28055658902961
  421 1  1.6994283331801565 33.18359534170992 10.432371086778934
  422 1  13.052297763318487 28.31306658465253 26.71656233092134
  423 1  17.0085305828929 10.572310891662154 16.418083434397875
  424 1  17.768693564881076 0.27969880116170814 27.282742753805948
  425 1  2.4745751907969784 17.80579042079276 16.744380631612913
  426 1  19.612971049984264 31.767927188440986 3.961489324117339
  427 1  18.405740942690585 30.898361505125667 33.37155402684094
  428 1  23.527173291092375 13.485346134220919 16.784218701564107
  429 1  13.259237047622232 10.652947611350937 13.502927281801735
  430 1  9.370137845004962 17.77424072230608 25.711163510537784
  431 1  18.521942915057682 2.4119646451188395 29.79824450755819
  432 1  22.08302608552826 11.760950968706524 13.589439684215504
  433 1  13.809962223179472 30.966858648682027 15.904704899269648
  434 1  32.12864388809809 7.132342298532173 17.185292164619845
  435 1  17.061252637579454 14.860643866305873 31.37220014950673
  436 1  18.835704899386442 16.490430851885414 1.355696826617445
  437 1  6.303079923233601 8.744846069124666 17.304303534464392
  438 1  1.1120503159487218 30.79493934270195 19.648767568477002
  439 1  21.55157262183592 22.32595693852378 19.946587360627397
  440 1  1.2821887805790364 4.825050472205973 17.084265800815555
  441 1  14.314178197262942 31.649514025916478 5.70728168579325
  442 1  1.439552863935699 24.832124664993074 9.017965125806239
  443 1  9.148678447144816 28.048413065517746 0.16129456045455495
  444 1  10.063141582272012 28.412633483033044 19.30085203128497
  445 1  5.903081118285534 9.687475677422512 11.541276521658416
  446 1  8.401336488382851 26.03006167484219 9.466058144294154
  447 1  24.88301681506038 14.884233682941534 2.7900615285144226
  448 1  21.905830563169417 10.683840255494557 2.364843696012257
  449 1  5.648487147162992 0.2201478057534043 1.4888977303840332
  450 1  7.644665973873573 27.125016607477665 16.598865207196518
  451 1  9.746041944870841 12.1837954519702 22.4507434029189
  452 1  14.283293126507251 30.83256206925345 3.319665325287557
  453 1  0.922109994330167 13.264072524748626 26.231514441354104
  454 1  31.3803179654565 20.503188108649216 26.95725282077522
  455 1  28.414263291077244 28.852448542891988 21.970845605694937
  456 1  21.575310422301598 3.4250271665610454 24.035756123960944
  457 1  28.612997550768117 26.51659098790231 30.97423577122482
  458 1  27.296761876656806 29.997588574811523 9.935270731286948
  459 1  13.225958198117365 29.379105268249145 29.903757592571353
  460 1  10.464479759771779 14.596277042077114 15.753068263774754
  461 1  1.9450810919531378 31.427182982300778 32.560065286815586
  462 1  33.4368519146533 18.945535032918777 18.48487274824852
  463 1  20.168430327744268 18.75857715494186 16.445960601147686